 &FCI NORB=  8,NELEC= 8,MS2= 0,
  ORBSYM=1,1,1,1,1,1,1,1,
  ISYM=1
 &END
    1.02254818418      1  1  1  1
  -0.209192660839E-17  2  1  1  1
   0.200487899907      2  1  2  1
   0.993758334518      2  2  1  1
  -0.223219639815E-17  2  2  2  1
    1.04101278952      2  2  2  2
  -0.836627245773E-17  3  1  1  1
  -0.640278696743E-17  3  1  2  1
  -0.762171931635E-17  3  1  2  2
   0.200487899907      3  1  3  1
  -0.302456916204E-16  3  2  1  1
  -0.113418319399E-17  3  2  2  1
  -0.318255032196E-16  3  2  2  2
  -0.228778718396E-18  3  2  3  1
   0.516756273580E-01  3  2  3  2
   0.993758334518      3  3  1  1
  -0.177463896136E-17  3  3  2  1
   0.937661534803      3  3  2  2
  -0.989008570434E-17  3  3  3  1
  -0.291108283312E-16  3  3  3  2
    1.04101278952      3  3  3  3
   0.123723283405E-16  4  1  1  1
  -0.951932787213E-17  4  1  2  1
   0.102327242933E-16  4  1  2  2
   0.550932686848E-17  4  1  3  1
  -0.210460508571E-32  4  1  3  2
   0.102327242933E-16  4  1  3  3
   0.200487899907      4  1  4  1
  -0.576179185029E-16  4  2  1  1
   0.124726482641E-17  4  2  2  1
  -0.588531995476E-16  4  2  2  2
  -0.965180779045E-33  4  2  3  1
   0.159411600673E-17  4  2  3  2
  -0.559553012432E-16  4  2  3  3
  -0.228778718396E-18  4  2  4  1
   0.516756273580E-01  4  2  4  2
   0.238715460000E-16  4  3  1  1
  -0.267373243061E-32  4  3  2  1
   0.223181381938E-16  4  3  2  2
   0.124726482641E-17  4  3  3  1
  -0.195156391047E-17  4  3  3  2
   0.234848226743E-16  4  3  3  3
  -0.113418319399E-17  4  3  4  1
  -0.158665814633E-17  4  3  4  2
   0.516756273580E-01  4  3  4  3
   0.993758334518      4  4  1  1
  -0.177463896136E-17  4  4  2  1
   0.937661534803      4  4  2  2
  -0.762171931635E-17  4  4  3  1
  -0.284433663688E-16  4  4  3  2
   0.937661534803      4  4  3  3
   0.127272539461E-16  4  4  4  1
  -0.531259064518E-16  4  4  4  2
   0.290566182226E-16  4  4  4  3
    1.04101278952      4  4  4  4
  -0.128164615704E-16  5  1  1  1
   0.865738828696E-02  5  1  2  1
  -0.121964148075E-16  5  1  2  2
  -0.570037214958E-01  5  1  3  1
   0.126774353815E-18  5  1  3  2
  -0.825365363552E-17  5  1  3  3
   0.356098362221E-03  5  1  4  1
   0.351854078123E-18  5  1  4  2
  -0.234580281094E-17  5  1  4  3
  -0.120407239586E-16  5  1  4  4
   0.500786474401E-01  5  1  5  1
   0.399650899119E-01  5  2  1  1
  -0.178018890096E-17  5  2  2  1
   0.425674361531E-01  5  2  2  2
   0.348870103769E-18  5  2  3  1
  -0.159997444362E-01  5  2  3  2
   0.377075429236E-01  5  2  3  3
   0.106256652780E-17  5  2  4  1
   0.999493127851E-04  5  2  4  2
  -0.818572640227E-17  5  2  4  3
   0.377075429236E-01  5  2  4  4
  -0.197082592434E-17  5  2  5  1
   0.252711687334E-01  5  2  5  2
  -0.263146202917      5  3  1  1
   0.383956386432E-18  5  3  2  1
  -0.248281606861      5  3  2  2
   0.948294877022E-17  5  3  3  1
   0.242994661474E-02  5  3  3  2
  -0.280281095734      5  3  3  3
  -0.707880874824E-17  5  3  4  1
  -0.436414667831E-16  5  3  4  2
   0.999493127850E-04  5  3  4  3
  -0.248281606861      5  3  4  4
   0.108286432517E-16  5  3  5  1
  -0.264360853399E-01  5  3  5  2
   0.195322015622      5  3  5  3
   0.164385639086E-02  5  4  1  1
   0.954739729550E-18  5  4  2  1
   0.155099827262E-02  5  4  2  2
  -0.637027698254E-17  5  4  3  1
  -0.130917412328E-16  5  4  3  2
   0.155099827262E-02  5  4  3  3
  -0.133387529395E-17  5  4  4  1
   0.242994661474E-02  5  4  4  2
  -0.159997444362E-01  5  4  4  3
   0.175089689819E-02  5  4  4  4
   0.956064131008E-18  5  4  5  1
   0.165144422966E-03  5  4  5  2
  -0.108737720638E-02  5  4  5  3
   0.212630051193E-01  5  4  5  4
   0.790171485483      5  5  1  1
  -0.376389957890E-17  5  5  2  1
   0.761136463503      5  5  2  2
   0.118617688044E-16  5  5  3  1
  -0.100876559779E-01  5  5  3  2
   0.826025588342      5  5  3  3
   0.677246572449E-17  5  5  4  1
   0.630168992151E-04  5  5  4  2
  -0.414928573528E-03  5  5  4  3
   0.759607001969      5  5  4  4
  -0.111395189738E-16  5  5  5  1
   0.278006405576E-01  5  5  5  2
  -0.183050582912      5  5  5  3
   0.114350451143E-02  5  5  5  4
   0.716873783050      5  5  5  5
  -0.124059239383E-16  6  1  1  1
  -0.570047161071E-01  6  1  2  1
  -0.111619070572E-16  6  1  2  2
  -0.865793324140E-02  6  1  3  1
   0.197141786149E-17  6  1  3  2
  -0.114154338184E-16  6  1  3  3
  -0.630547544432E-04  6  1  4  1
  -0.233346288323E-17  6  1  4  2
  -0.352367994968E-18  6  1  4  3
  -0.120002199435E-16  6  1  4  4
  -0.896669077963E-17  6  1  5  1
   0.181983790421E-17  6  1  5  2
   0.871700174680E-17  6  1  5  3
  -0.481400594989E-19  6  1  5  4
  -0.805125910887E-17  6  1  5  5
   0.500786474401E-01  6  1  6  1
  -0.263150794340      6  2  1  1
   0.409089909959E-18  6  2  2  1
  -0.280285986129      6  2  2  2
   0.551482770326E-17  6  2  3  1
  -0.243009957198E-02  6  2  3  2
  -0.248285938924      6  2  3  3
  -0.704290461708E-17  6  2  4  1
  -0.176981419828E-04  6  2  4  2
  -0.220093041015E-16  6  2  4  3
  -0.248285938924      6  2  4  4
   0.822096085566E-17  6  2  5  1
  -0.264365466059E-01  6  2  5  2
   0.152813046093      6  2  5  3
  -0.961096823192E-03  6  2  5  4
  -0.172170896559      6  2  5  5
   0.109785166356E-16  6  2  6  1
   0.195328089938      6  2  6  2
  -0.399676055844E-01  6  3  1  1
   0.574852299283E-17  6  3  2  1
  -0.377099164908E-01  6  3  2  2
  -0.323674044296E-18  6  3  3  1
  -0.160000236027E-01  6  3  3  2
  -0.425701156347E-01  6  3  3  3
  -0.106372600925E-17  6  3  4  1
  -0.109728353756E-16  6  3  4  2
  -0.176981419828E-04  6  3  4  3
  -0.377099164908E-01  6  3  4  4
   0.423225817602E-17  6  3  5  1
   0.172405851669E-01  6  3  5  2
   0.264377494099E-01  6  3  5  3
  -0.122460626389E-03  6  3  5  4
  -0.261494878140E-01  6  3  5  5
   0.788156025544E-18  6  3  6  1
   0.264382106962E-01  6  3  6  2
   0.252716742062E-01  6  3  6  3
  -0.291079578179E-03  6  4  1  1
  -0.633567860271E-17  6  4  2  1
  -0.274637082327E-03  6  4  2  2
  -0.956570313424E-18  6  4  3  1
  -0.378115507654E-17  6  4  3  2
  -0.274637082327E-03  6  4  3  3
  -0.199407013674E-17  6  4  4  1
  -0.160000236027E-01  6  4  4  2
  -0.243009957198E-02  6  4  4  3
  -0.310033366292E-03  6  4  4  4
  -0.863501976574E-20  6  4  5  1
  -0.155541672989E-03  6  4  5  2
   0.149848964917E-03  6  4  5  3
  -0.120280396755E-05  6  4  5  4
  -0.190443779998E-03  6  4  5  5
   0.104173342030E-17  6  4  6  1
   0.192546516703E-03  6  4  6  2
   0.292441572878E-04  6  4  6  3
   0.212564253300E-01  6  4  6  4
   0.192580824145E-16  6  5  1  1
   0.731131387771E-17  6  5  2  1
  -0.100878319892E-01  6  5  2  2
   0.893770899143E-17  6  5  3  1
   0.324450936647E-01  6  5  3  2
   0.100882909631E-01  6  5  3  3
  -0.384213473693E-19  6  5  4  1
  -0.213047144747E-03  6  5  4  2
   0.522551150025E-05  6  5  4  3
  -0.458973881441E-06  6  5  4  4
  -0.135121348410E-17  6  5  5  1
  -0.544144008670E-02  6  5  5  2
  -0.826451369195E-03  6  5  5  3
  -0.601895247085E-05  6  5  5  4
   0.522159020208E-10  6  5  5  5
  -0.148691956482E-17  6  5  6  1
   0.826399350062E-03  6  5  6  2
  -0.544134514512E-02  6  5  6  3
   0.339917123311E-04  6  5  6  4
   0.329686734090E-01  6  5  6  5
   0.790171485483      6  6  1  1
   0.141116233825E-16  6  6  2  1
   0.826027906220      6  6  2  2
  -0.276041698790E-17  6  6  3  1
   0.100884669854E-01  6  6  3  2
   0.761136656385      6  6  3  3
   0.689525359239E-17  6  6  4  1
   0.734731708753E-04  6  6  4  2
   0.111591786069E-04  6  6  4  3
   0.759604491210      6  6  4  4
  -0.816567984190E-17  6  6  5  1
   0.261478418925E-01  6  6  5  2
  -0.172167892542      6  6  5  3
   0.107552108811E-02  6  6  5  4
   0.650936435903      6  6  5  5
  -0.107536860762E-16  6  6  6  1
  -0.183053776811      6  6  6  2
  -0.278023905175E-01  6  6  6  3
  -0.202481685725E-03  6  6  6  4
  -0.523045252943E-10  6  6  6  5
   0.716873783050      6  6  6  6
  -0.123494616913E-16  7  1  1  1
   0.115810031369E-03  7  1  2  1
  -0.115191365641E-16  7  1  2  2
  -0.342593027175E-03  7  1  3  1
  -0.137299271715E-20  7  1  3  2
  -0.114945083644E-16  7  1  3  3
  -0.576573556489E-01  7  1  4  1
   0.426085694171E-18  7  1  4  2
   0.191596753646E-17  7  1  4  3
  -0.162387328623E-16  7  1  4  4
   0.921571846613E-17  7  1  5  1
  -0.117365896147E-17  7  1  5  2
   0.770520470839E-17  7  1  5  3
   0.306000602953E-17  7  1  5  4
  -0.772975343031E-17  7  1  5  5
  -0.283518868105E-16  7  1  6  1
   0.768094634189E-17  7  1  6  2
   0.118501716834E-17  7  1  6  3
   0.295832233642E-17  7  1  6  4
  -0.521082013166E-29  7  1  6  5
  -0.772975343028E-17  7  1  6  6
   0.500786474401E-01  7  1  7  1
   0.534613692137E-03  7  2  1  1
  -0.202804721239E-17  7  2  2  1
   0.569425322369E-03  7  2  2  2
  -0.387641839501E-20  7  2  3  1
  -0.961586495863E-04  7  2  3  2
   0.504414447414E-03  7  2  3  3
   0.118727337290E-17  7  2  4  1
  -0.161832057810E-01  7  2  4  2
  -0.601393392551E-18  7  2  4  3
   0.504414447414E-03  7  2  4  4
  -0.405623449526E-18  7  2  5  1
   0.537081402532E-04  7  2  5  2
  -0.330390382563E-03  7  2  5  3
  -0.318959953406E-02  7  2  5  4
   0.349780128597E-03  7  2  5  5
   0.253817590204E-17  7  2  6  1
  -0.353642136182E-03  7  2  6  2
   0.775666731192E-04  7  2  6  3
   0.210144362253E-01  7  2  6  4
   0.155413578057E-12  7  2  6  5
   0.349780127531E-03  7  2  6  6
  -0.209159392539E-18  7  2  7  1
   0.212569308028E-01  7  2  7  2
  -0.158151173084E-02  7  3  1  1
  -0.391529342282E-20  7  3  2  1
  -0.149217533618E-02  7  3  2  2
  -0.195768343861E-17  7  3  3  1
   0.325054374772E-04  7  3  3  2
  -0.168449263535E-02  7  3  3  3
   0.558325355554E-17  7  3  4  1
   0.118048930451E-17  7  3  4  2
  -0.161832057810E-01  7  3  4  3
  -0.149217533618E-02  7  3  4  4
   0.260696193762E-17  7  3  5  1
  -0.182126763173E-03  7  3  5  2
   0.104613749639E-02  7  3  5  3
   0.210086589212E-01  7  3  5  4
  -0.103473103192E-02  7  3  5  5
   0.437630812439E-18  7  3  6  1
   0.914877554872E-03  7  3  6  2
   0.158891180560E-03  7  3  6  3
   0.319276495912E-02  7  3  6  4
  -0.195748121488E-12  7  3  6  5
  -0.103473103057E-02  7  3  6  6
  -0.846326866455E-18  7  3  7  1
  -0.212535625297E-05  7  3  7  2
   0.212624996465E-01  7  3  7  3
  -0.266163573380      7  4  1  1
   0.125561439599E-17  7  4  2  1
  -0.251128532177      7  4  2  2
   0.536173052352E-17  7  4  3  1
   0.461040033191E-17  7  4  3  2
  -0.251128532177      7  4  3  3
  -0.155576200109E-16  7  4  4  1
   0.325054374772E-04  7  4  4  2
  -0.961586495863E-04  7  4  4  3
  -0.283494943739      7  4  4  4
   0.874711467515E-17  7  4  5  1
  -0.235474064930E-01  7  4  5  2
   0.155046537697      7  4  5  3
  -0.109984563664E-02  7  4  5  4
  -0.174142058642      7  4  5  5
   0.834772338479E-17  7  4  6  1
   0.155049976325      7  4  6  2
   0.235492905410E-01  7  4  6  3
   0.194750955622E-03  7  4  6  4
  -0.182486709392E-13  7  4  6  5
  -0.174142058642      7  4  6  6
   0.113884472234E-16  7  4  7  1
  -0.357690939669E-03  7  4  7  2
   0.105813304909E-02  7  4  7  3
   0.199336759025      7  4  7  4
   0.124032735662E-15  7  5  1  1
  -0.993359992187E-18  7  5  2  1
   0.204943067679E-04  7  5  2  2
   0.647825961395E-17  7  5  3  1
  -0.977848380810E-04  7  5  3  2
   0.399192052386E-03  7  5  3  3
   0.853012740422E-17  7  5  4  1
  -0.510124164029E-02  7  5  4  2
   0.335901521310E-01  7  5  4  3
  -0.419686359154E-03  7  5  4  4
  -0.113827339839E-17  7  5  5  1
   0.110547580883E-04  7  5  5  2
  -0.327025487943E-04  7  5  5  3
  -0.550373842124E-02  7  5  5  4
   0.615868348073E-11  7  5  5  5
  -0.520979999064E-29  7  5  6  1
   0.155384019995E-12  7  5  6  2
  -0.195750750678E-12  7  5  6  3
  -0.182778029433E-13  7  5  6  4
   0.974764539918E-12  7  5  6  5
  -0.558618446508E-12  7  5  6  6
  -0.148691956480E-17  7  5  7  1
   0.826399338040E-03  7  5  7  2
  -0.544134514356E-02  7  5  7  3
   0.339917134187E-04  7  5  7  4
   0.329686733940E-01  7  5  7  5
  -0.208167272774E-16  7  6  1  1
   0.641190470573E-17  7  6  2  1
  -0.134945101269E-03  7  6  2  2
   0.102218853411E-17  7  6  3  1
   0.189351710372E-03  7  6  3  2
   0.606307456664E-04  7  6  3  3
   0.774561781406E-17  7  6  4  1
   0.335919104691E-01  7  6  4  2
   0.510220504591E-02  7  6  4  3
   0.743143556026E-04  7  6  4  4
  -0.520758691094E-29  7  6  5  1
   0.155408062179E-12  7  6  5  2
  -0.195691621002E-12  7  6  5  3
  -0.182791607371E-13  7  6  5  4
   0.974754948700E-12  7  6  5  5
  -0.113827339836E-17  7  6  6  1
   0.110547570220E-04  7  6  6  2
  -0.327025474453E-04  7  6  6  3
  -0.550373842125E-02  7  6  6  4
  -0.558695423909E-12  7  6  6  5
   0.480494290189E-11  7  6  6  6
  -0.135121348376E-17  7  6  7  1
  -0.544144008514E-02  7  6  7  2
  -0.826451357223E-03  7  6  7  3
  -0.601895103669E-05  7  6  7  4
   0.888533224861E-13  7  6  7  5
   0.329686733940E-01  7  6  7  6
   0.790171485483      7  7  1  1
  -0.121632024297E-17  7  7  2  1
   0.759604684092      7  7  2  2
  -0.500721715332E-17  7  7  3  1
  -0.811007472798E-06  7  7  3  2
   0.759606809088      7  7  3  3
   0.198803981790E-16  7  7  4  1
  -0.136490070091E-03  7  7  4  2
   0.403769394921E-03  7  7  4  3
   0.827557560635      7  7  4  4
  -0.816567984188E-17  7  7  5  1
   0.261478418804E-01  7  7  5  2
  -0.172167892540      7  7  5  3
   0.107552108920E-02  7  7  5  4
   0.650936435888      7  7  5  5
  -0.805125910853E-17  7  7  6  1
  -0.172170896557      7  7  6  2
  -0.261494878021E-01  7  7  6  3
  -0.190443778564E-03  7  7  6  4
   0.888923808694E-13  7  7  6  5
   0.650936435888      7  7  6  6
  -0.100063002270E-16  7  7  7  1
   0.371889646057E-03  7  7  7  2
  -0.110013612444E-02  7  7  7  3
  -0.185149535571      7  7  7  4
  -0.559975980516E-11  7  7  7  5
  -0.577963805287E-11  7  7  7  6
   0.716873783065      7  7  7  7
  -0.227394352847      8  1  1  1
   0.292722008795E-17  8  1  2  1
  -0.220301130826      8  1  2  2
   0.171914289888E-16  8  1  3  1
   0.591426382026E-17  8  1  3  2
  -0.220301130826      8  1  3  3
   0.602540252712E-17  8  1  4  1
  -0.392871527801E-16  8  1  4  2
  -0.166154517499E-16  8  1  4  3
  -0.220301130826      8  1  4  4
  -0.777727765842E-17  8  1  5  1
  -0.226620305410E-01  8  1  5  2
   0.149215910696      8  1  5  3
  -0.932141622018E-03  8  1  5  4
  -0.147546139901      8  1  5  5
   0.253577935339E-17  8  1  6  1
   0.149218514242      8  1  6  2
   0.226634570421E-01  8  1  6  3
   0.165055409736E-03  8  1  6  4
   0.253296732547E-16  8  1  6  5
  -0.147546139901      8  1  6  6
   0.194127419758E-17  8  1  7  1
  -0.303150370624E-03  8  1  7  2
   0.896789353512E-03  8  1  7  3
   0.150926897503      8  1  7  4
  -0.275387351811E-16  8  1  7  5
   0.687384177356E-16  8  1  7  6
  -0.147546139901      8  1  7  7
   0.138257133539      8  1  8  1
   0.150671445307E-16  8  2  1  1
  -0.394551839954E-01  8  2  2  1
   0.166153969002E-16  8  2  2  2
  -0.666457269316E-17  8  2  3  1
   0.633142896090E-17  8  2  3  2
   0.144977914628E-16  8  2  3  3
  -0.381060909487E-16  8  2  4  1
   0.611408952979E-18  8  2  4  2
   0.492315842034E-32  8  2  4  3
   0.144977914628E-16  8  2  4  4
  -0.795117568042E-02  8  2  5  1
  -0.182244168330E-17  8  2  5  2
  -0.782465695697E-17  8  2  5  3
   0.309706289548E-18  8  2  5  4
   0.100923404689E-16  8  2  5  5
   0.523546475399E-01  8  2  6  1
  -0.907512798844E-17  8  2  6  2
  -0.879952875594E-17  8  2  6  3
  -0.168084543372E-17  8  2  6  4
   0.379112780805E-18  8  2  6  5
   0.966603892688E-17  8  2  6  6
  -0.106363013237E-03  8  2  7  1
   0.903281143079E-18  8  2  7  2
  -0.387027011080E-19  8  2  7  3
  -0.905378473757E-17  8  2  7  4
  -0.227620148439E-18  8  2  7  5
   0.149477243902E-17  8  2  7  6
   0.101892148869E-16  8  2  7  7
  -0.117368373619E-16  8  2  8  1
   0.595288345743E-01  8  2  8  2
   0.920282959606E-16  8  3  1  1
   0.750353900235E-17  8  3  2  1
   0.886510964105E-16  8  3  2  2
  -0.394551839954E-01  8  3  3  1
   0.105880271870E-17  8  3  3  2
   0.101313954332E-15  8  3  3  3
  -0.204656233646E-16  8  3  4  1
   0.159754854452E-31  8  3  4  2
   0.611408952979E-18  8  3  4  3
   0.886510964105E-16  8  3  4  4
   0.523537340625E-01  8  3  5  1
   0.710308215886E-17  8  3  5  2
  -0.655649948957E-16  8  3  5  3
  -0.132883576414E-17  8  3  5  4
   0.628373539555E-16  8  3  5  5
   0.795167618107E-02  8  3  6  1
  -0.549442068960E-16  8  3  6  2
  -0.835397039316E-17  8  3  6  3
  -0.314355803123E-18  8  3  6  4
  -0.213142912226E-18  8  3  6  5
   0.620791351283E-16  8  3  6  6
   0.314646548781E-03  8  3  7  1
   0.103957063760E-18  8  3  7  2
   0.508811244703E-18  8  3  7  3
  -0.553968948811E-16  8  3  7  4
   0.149624566399E-17  8  3  7  5
   0.225355516093E-18  8  3  7  6
   0.621774781605E-16  8  3  7  7
  -0.717150882993E-16  8  3  8  1
  -0.182326453332E-17  8  3  8  2
   0.595288345743E-01  8  3  8  3
   0.224241522654E-16  8  4  1  1
  -0.520382425511E-16  8  4  2  1
   0.198905165041E-16  8  4  2  2
  -0.201269146076E-17  8  4  3  1
   0.410463819398E-32  8  4  3  2
   0.198905165041E-16  8  4  3  3
  -0.394551839954E-01  8  4  4  1
   0.105880271870E-17  8  4  4  2
   0.633142896090E-17  8  4  4  3
   0.211133344100E-16  8  4  4  4
  -0.327050207716E-03  8  4  5  1
   0.187022297700E-17  8  4  5  2
  -0.122179167395E-16  8  4  5  3
  -0.327962741279E-17  8  4  5  4
   0.130168618435E-16  8  4  5  5
   0.579111636726E-04  8  4  6  1
  -0.122659460707E-16  8  4  6  2
  -0.187098934819E-17  8  4  6  3
   0.107752205133E-17  8  4  6  4
   0.202795187179E-20  8  4  6  5
   0.130205108222E-16  8  4  6  6
   0.529540490546E-01  8  4  7  1
  -0.120238142844E-17  8  4  7  2
  -0.759836907872E-17  8  4  7  3
  -0.132124666694E-16  8  4  7  4
   0.333470083247E-18  8  4  7  5
  -0.266000471042E-18  8  4  7  6
   0.160437805081E-16  8  4  7  7
  -0.162857365160E-16  8  4  8  1
  -0.785915601342E-17  8  4  8  2
   0.729843581537E-18  8  4  8  3
   0.595288345743E-01  8  4  8  4
  -0.224205491943E-15  8  5  1  1
  -0.204523147202E-01  8  5  2  1
  -0.213533993045E-15  8  5  2  2
   0.134666254257      8  5  3  1
  -0.129177235016E-18  8  5  3  2
  -0.237988918230E-15  8  5  3  3
  -0.841250910101E-03  8  5  4  1
   0.418059860179E-18  8  5  4  2
  -0.259827626872E-17  8  5  4  3
  -0.214090305476E-15  8  5  4  4
  -0.238765980456E-01  8  5  5  1
  -0.600476137516E-17  8  5  5  2
   0.535251922191E-16  8  5  5  3
  -0.457567576194E-17  8  5  5  4
  -0.193752823498E-15  8  5  5  5
   0.175166413492E-16  8  5  6  1
   0.459383923923E-16  8  5  6  2
   0.703750613551E-17  8  5  6  3
   0.504554207201E-19  8  5  6  4
   0.289749400984E-17  8  5  6  5
  -0.185439147681E-15  8  5  6  6
  -0.910729824888E-17  8  5  7  1
  -0.219180118785E-18  8  5  7  2
   0.110468145913E-17  8  5  7  3
   0.464682187889E-16  8  5  7  4
   0.345185348255E-17  8  5  7  5
  -0.286486701459E-27  8  5  7  6
  -0.185439147681E-15  8  5  7  7
   0.410714144834E-16  8  5  8  1
   0.125003926011E-02  8  5  8  2
  -0.823076053427E-02  8  5  8  3
   0.514169999638E-04  8  5  8  4
   0.117383386317      8  5  8  5
  -0.430630867704E-16  8  6  1  1
   0.134668603939      8  6  2  1
  -0.441145502864E-16  8  6  2  2
   0.204536021269E-01  8  6  3  1
  -0.122276893547E-16  8  6  3  2
  -0.438563562185E-16  8  6  3  3
   0.148961284828E-03  8  6  4  1
  -0.267501261977E-17  8  6  4  2
  -0.419156696836E-18  8  6  4  3
  -0.402375327628E-16  8  6  4  4
   0.313876528935E-16  8  6  5  1
   0.117428538372E-18  8  6  5  2
   0.871624075821E-17  8  6  5  3
  -0.515549814444E-19  8  6  5  4
  -0.354782379748E-16  8  6  5  5
  -0.238765980456E-01  8  6  6  1
   0.974868217886E-17  8  6  6  2
   0.747027936489E-17  8  6  6  3
  -0.427038082462E-17  8  6  6  4
  -0.415683783796E-17  8  6  6  5
  -0.296832499192E-16  8  6  6  6
   0.511743425413E-16  8  6  7  1
   0.811283198360E-18  8  6  7  2
   0.176940841490E-18  8  6  7  3
   0.860069326899E-17  8  6  7  4
  -0.286497968150E-27  8  6  7  5
   0.345185348449E-17  8  6  7  6
  -0.354782379541E-16  8  6  7  7
   0.773524639728E-17  8  6  8  1
  -0.823090414608E-02  8  6  8  2
  -0.125011794602E-02  8  6  8  3
  -0.910446845840E-05  8  6  8  4
  -0.212401981853E-16  8  6  8  5
   0.117383386317      8  6  8  6
  -0.149389765856E-16  8  7  1  1
  -0.273590964250E-03  8  7  2  1
  -0.144492213025E-16  8  7  2  2
   0.809345749605E-03  8  7  3  1
   0.125745299916E-19  8  7  3  2
  -0.146005400557E-16  8  7  3  3
   0.136210407178      8  7  4  1
  -0.195826272894E-17  8  7  4  2
  -0.120854986037E-16  8  7  4  3
  -0.198640425843E-16  8  7  4  4
  -0.693889390391E-17  8  7  5  1
  -0.129545518402E-17  8  7  5  2
   0.851941945877E-17  8  7  5  3
   0.137166609556E-17  8  7  5  4
  -0.107914848399E-16  8  7  5  5
   0.620163642662E-16  8  7  6  1
   0.851098195262E-17  8  7  6  2
   0.129302909253E-17  8  7  6  3
   0.690674501634E-19  8  7  6  4
  -0.286491612581E-27  8  7  6  5
  -0.107914848379E-16  8  7  6  6
  -0.238765980456E-01  8  7  7  1
   0.116829650331E-17  8  7  7  2
   0.622609413077E-17  8  7  7  3
   0.516673605723E-17  8  7  7  4
  -0.415683783837E-17  8  7  7  5
   0.289749403048E-17  8  7  7  6
  -0.388777788996E-17  8  7  7  7
   0.161390471382E-16  8  7  8  1
   0.167217965889E-04  8  7  8  2
  -0.494669662505E-04  8  7  8  3
  -0.832513869152E-02  8  7  8  4
   0.147451495458E-16  8  7  8  5
   0.149619899803E-16  8  7  8  6
   0.117383386317      8  7  8  7
   0.825055206483      8  8  1  1
  -0.176174915544E-16  8  8  2  1
   0.810332503989      8  8  2  2
  -0.104493171398E-15  8  8  3  1
  -0.251397801415E-16  8  8  3  2
   0.810332503989      8  8  3  3
  -0.108406294365E-16  8  8  4  1
  -0.717628936304E-16  8  8  4  2
   0.147624367934E-16  8  8  4  3
   0.810332503989      8  8  4  4
   0.496444499271E-17  8  8  5  1
   0.260051398269E-01  8  8  5  2
  -0.171228284907      8  8  5  3
   0.106965142312E-02  8  8  5  4
   0.686776350465      8  8  5  5
  -0.381699609919E-17  8  8  6  1
  -0.171231272529      8  8  6  2
  -0.260067767658E-01  8  8  6  3
  -0.189404431417E-03  8  8  6  4
   0.234323194528E-16  8  8  6  5
   0.686776350465      8  8  6  6
   0.462971558145E-19  8  8  7  1
   0.347871200791E-03  8  8  7  2
  -0.102908397776E-02  8  8  7  3
  -0.173191676981      8  8  7  4
   0.108420217249E-15  8  8  7  5
   0.234187669257E-16  8  8  7  6
   0.686776350465      8  8  7  7
  -0.144551786765      8  8  8  1
   0.989022839745E-17  8  8  8  2
   0.618169976729E-16  8  8  8  3
   0.208363701561E-16  8  8  8  4
  -0.281552046361E-15  8  8  8  5
  -0.660104520614E-16  8  8  8  6
  -0.247023186872E-16  8  8  8  7
   0.711505144204      8  8  8  8
   -8.30243262211      1  1  0  0
   0.109651219626E-16  2  1  0  0
   -7.30743362233      2  2  0  0
   0.464748783891E-16  3  1  0  0
   0.216509847629E-15  3  2  0  0
   -7.30743362233      3  3  0  0
  -0.635359509531E-16  4  1  0  0
   0.554509907162E-15  4  2  0  0
  -0.154113297092E-15  4  3  0  0
   -7.30743362233      4  4  0  0
   0.610896034564E-16  5  1  0  0
  -0.259810486454      5  2  0  0
    1.71069658893      5  3  0  0
  -0.106866049722E-01  5  4  0  0
   -4.28738846222      5  5  0  0
   0.737031338411E-16  6  1  0  0
    1.71072643747      6  2  0  0
   0.259826840679      6  3  0  0
   0.189228967006E-02  6  4  0  0
  -0.203504747776E-15  6  5  0  0
   -4.28738846222      6  6  0  0
   0.771117968631E-16  7  1  0  0
  -0.347548932644E-02  7  2  0  0
   0.102813063358E-01  7  3  0  0
    1.73031232079      7  4  0  0
  -0.652256026967E-15  7  5  0  0
   0.270616862252E-15  7  6  0  0
   -4.28738846222      7  7  0  0
    1.43083569992      8  1  0  0
  -0.785693740040E-16  8  2  0  0
  -0.507224037038E-15  8  3  0  0
  -0.252756196005E-15  8  4  0  0
   0.123201820780E-14  8  5  0  0
   0.253587979295E-15  8  6  0  0
   0.121518480012E-15  8  7  0  0
   -4.03583677331      8  8  0  0
   -93.8489523945      0  0  0  0
